[SERVER]
11.11.11.11

[DOWNLOAD]
dl_poly/1.1 https://gitlab.com/DL_POLY_Classic/dl_poly/-/archive/RELEASE-1-10/dl_poly-RELEASE-1-10.tar.gz dl_poly-RELEASE-1-10.tar.gz
TEST41 https://gitlab.com/DL_POLY_Classic/tests/-/raw/master/TEST41.tar.gz TEST41.tar.gz

[DEPENDENCY]
set -e
set -x

module purge
./jarvis -install hpckit/${HPCKIT_VERSION} any
module use ./software/utils/hpckit/${HPCKIT_VERSION}/HPCKit/${HPCKIT_VERSION}/modulefiles
module load bisheng/compiler${BISHENG_VERSION}/bishengmodule
module load bisheng/hmpi${HMPI_VERSION}/release
export CC=`which clang`
export CXX=`which clang++`
export FC=`which flang`
rm -rf dl_poly-RELEASE-1-10
tar -vzxf ${JARVIS_DOWNLOAD}/dl_poly-RELEASE-1-10.tar.gz
rm -rf TEST41
tar -vzxf ${JARVIS_DOWNLOAD}/TEST41.tar.gz

[ENV]
module purge
module use ./software/utils/hpckit/${HPCKIT_VERSION}/HPCKit/${HPCKIT_VERSION}/modulefiles
module load bisheng/compiler${BISHENG_VERSION}/bishengmodule
module load bisheng/hmpi${HMPI_VERSION}/release
export CC=`which clang`
export CXX=`which clang++`
export FC=`which flang`

[APP]
app_name = dl_poly
build_dir = ${JARVIS_ROOT}/dl_poly-RELEASE-1-10/source/
binary_dir = ${JARVIS_ROOT}/dl_poly-RELEASE-1-10/execute/
case_dir = ${JARVIS_ROOT}/TEST41/NHC/

[BUILD]
cp ../build/MakePAR ./Makefile
sed -i '65c\        FC=mpif90 FFLAGS="-c -O3 -march=armv8.2-a -mtune=tsv110" \\' Makefile
make dlpoly

[CLEAN]
make clean

[RUN]
run = mpirun --allow-run-as-root -np 8 -mca btl ^openib
binary = DLPOLY.X
nodes = 1

[PERF]
perf= 
nsys=
ncu=--target-processes all

